SPECGRID
3 3 1  1 F /

COORD
	0.000	   900.000   10.000   0.000      900.000    13.000
	300.000	   900.000   10.000   300.000    900.000    13.000
	600.000	   900.000   10.000   600.000    900.000    13.000
	900.000	   900.000   10.000   900.000    900.000    13.000
	0.000	   600.000   10.000   0.000      600.000    13.000
	300.000	   600.000   10.000   300.000    600.000    13.000
	600.000	   600.000   10.000   600.000    600.000    13.000
	900.000	   600.000   10.000   900.000    600.000    13.000
	0.000	   300.000   10.000   0.000      300.000    13.000
	300.000	   300.000   10.000   300.000    300.000    13.000
	600.000	   300.000   10.000   600.000    300.000    13.000
	900.000	   300.000   10.000   900.000    300.000    13.000
	0.000	   0.000     10.000   0.000      0.000      13.000
	300.000	   0.000     10.000   300.000    0.000      13.000
	600.000	   0.000     10.000   600.000    0.000      13.000
	900.000	   0.000     10.000   900.000    0.000      13.000
	/
ZCORN
	10.000    10.000    10.000   10.000
	10.000    10.000    10.000   10.000
	10.000    10.000    10.000   10.000
	10.000    10.000    10.000   10.000
	10.000    10.000    10.000   10.000
	10.000    10.000    10.000   10.000
	10.000    10.000    10.000   10.000
	10.000    10.000    10.000   10.000
	10.000    10.000    10.000   10.000
	11.000    12.000    13.000   14.000	
	15.000    16.000    17.000   18.000
	19.000    20.000    21.000   22.000
	23.000    24.000    25.000   26.000
	27.000    28.000    29.000   30.000
	31.000    32.000    33.000   34.000
	35.000    36.000    37.000   38.000
	39.000    40.000    41.000   42.000
	43.000    44.000    45.000   46.000
	/
ACTNUM
1 1 1
1 1 1
1 1 1
/
--Original RMS parameter name: PERMX

PERMX
	200	400	600
	200	400	600
	200	400	600
/
--Original RMS parameter name: poro

poro

	500	5000	50
	50	500	500
	5	50	500
	/