SPECGRID
4 4 1  1 F /

COORD
    5.000    25.000    0.000    5.000    25.000    0.000
    10.000    25.000    0.000    10.000    25.000    0.000
    15.000    25.000    0.000    15.000    25.000    0.000
    20.000    25.000    0.000    20.000    25.000    0.000
    25.000    25.000    0.000    25.000    25.000    0.000
    5.000    20.000    0.000    5.000    20.000    0.000
    10.000    20.000    4.000    10.000    20.000    7.000
    15.000    20.000    4.843    15.000    20.000    7.780
    20.000    20.000    6.000    20.000    20.000    9.000
    25.000    20.000    0.000    25.000    20.000    0.000
    5.000    15.000    0.000    5.000    15.000    0.000
    10.000    15.000    3.531    10.000    15.000    5.594
    15.000    15.000    3.750    15.000    15.000    6.250
    20.000    15.000    3.969    20.000    15.000    6.906
    25.000    15.000    0.000    25.000    15.000    0.000
    5.000    10.000    0.000    5.000    10.000    0.000
    10.000    10.000    3.000    10.000    10.000    4.000
    15.000    10.000    2.657    15.000    10.000    4.720
    20.000    10.000    2.000    20.000    10.000    5.000
    25.000    10.000    0.000    25.000    10.000    0.000
    5.000    5.000    0.000    5.000    5.000    0.000
    10.000    5.000    0.000    10.000    5.000    0.000
    15.000    5.000    0.000    15.000    5.000    0.000
    20.000    5.000    0.000    20.000    5.000    0.000
    25.000    5.000    0.000    25.000    5.000    0.000
    /
ZCORN
    0.000    0.000    0.000    0.000
    0.000    0.000    0.000    0.000
    0.000    0.000    0.000    0.000
    0.000    0.000    0.000    0.000
    0.000    0.000    0.000    0.000
    0.000    0.000    0.000    0.000
    4.000    4.000    4.000    4.000
    4.843    4.843    4.843    4.843
    6.000    6.000    6.000    6.000
    0.000    0.000    0.000    0.000
    0.000    0.000    0.000    0.000
    3.531    3.531    3.531    3.531
    3.750    3.750    3.750    3.750
    3.969    3.969    3.969    3.969
    0.000    0.000    0.000    0.000
    0.000    0.000    0.000    0.000
    0.000    0.000    0.000    0.000
    0.000    0.000    0.000    0.000
    0.000    0.000    0.000    0.000
    0.000    0.000    0.000    0.000
    0.000    0.000    0.000    0.000
    0.000    0.000    0.000    0.000
    7.000    7.000    7.000    7.000
    7.780    7.780    7.780    7.780
    9.000    9.000    9.000    9.000
    0.000    0.000    0.000    0.000
    0.000    0.000    0.000    0.000
    5.594    5.594    5.594    5.594
    6.250    6.250    6.250    6.250
    6.906    6.906    6.906    6.906
    0.000    0.000    0.000    0.000
    0.000    0.000    0.000    0.000
    /
ACTNUM
 1 1 1 1
 1 1 1 1
 1 1 1 1
 1 1 1 1
/
