SPECGRID
6 7 1  1 F /

COORD
    -5.000    35.000    0.000    -5.000    35.000    0.000
    0.000    35.000    0.000    0.000    35.000    0.000
    5.000    35.000    0.000    5.000    35.000    0.000
    10.000    35.000    0.000    10.000    35.000    0.000
    15.000    35.000    0.000    15.000    35.000    0.000
    20.000    35.000    0.000    20.000    35.000    0.000
    25.000    35.000    0.000    25.000    35.000    0.000
    -5.000    30.000    0.000    -5.000    30.000    0.000
    0.000    30.000    0.000    0.000    30.000    0.000
    5.000    30.000    4.000    5.000    30.000    6.000
    10.000    30.000    4.000    10.000    30.000    6.000
    15.000    30.000    4.000    15.000    30.000    6.000
    20.000    30.000    4.000    20.000    30.000    6.000
    25.000    30.000    4.000    25.000    30.000    6.000
    -5.000    25.000    4.000    -5.000    25.000    6.000
    0.000    25.000    0.000    0.000    25.000    0.000
    5.000    25.000    0.000    5.000    25.000    0.000
    10.000    25.000    4.000    10.000    25.000    6.000
    15.000    25.000    4.000    15.000    25.000    6.000
    20.000    25.000    4.000    20.000    25.000    6.000
    25.000    25.000    4.000    25.000    25.000    6.000
    -5.000    20.000    4.000    -5.000    20.000    6.000
    0.000    20.000    4.000    0.000    20.000    6.000
    5.000    20.000    0.000    5.000    20.000    0.000
    10.000    20.000    0.000    10.000    20.000    0.000
    15.000    20.000    4.000    15.000    20.000    6.000
    20.000    20.000    4.000    20.000    20.000    6.000
    25.000    20.000    4.000    25.000    20.000    6.000
    -5.000    15.000    4.000    -5.000    15.000    6.000
    0.000    15.000    4.000    0.000    15.000    6.000
    5.000    15.000    4.000    5.000    15.000    6.000
    10.000    15.000    0.000    10.000    15.000    0.000
    15.000    15.000    0.000    15.000    15.000    0.000
    20.000    15.000    4.000    20.000    15.000    6.000
    25.000    15.000    4.000    25.000    15.000    6.000
    -5.000    10.000    4.000    -5.000    10.000    6.000
    0.000    10.000    4.000    0.000    10.000    6.000
    5.000    10.000    4.000    5.000    10.000    6.000
    10.000    10.000    4.000    10.000    10.000    6.000
    15.000    10.000    0.000    15.000    10.000    0.000
    20.000    10.000    0.000    20.000    10.000    0.000
    25.000    10.000    4.000    25.000    10.000    6.000
    -5.000    5.000    4.000    -5.000    5.000    6.000
    0.000    5.000    4.000    0.000    5.000    6.000
    5.000    5.000    4.000    5.000    5.000    6.000
    10.000    5.000    4.000    10.000    5.000    6.000
    15.000    5.000    4.000    15.000    5.000    6.000
    20.000    5.000    0.000    20.000    5.000    0.000
    25.000    5.000    0.000    25.000    5.000    0.000
    -5.000    0.000    0.000    -5.000    0.000    0.000
    0.000    0.000    0.000    0.000    0.000    0.000
    5.000    0.000    0.000    5.000    0.000    0.000
    10.000    0.000    0.000    10.000    0.000    0.000
    15.000    0.000    0.000    15.000    0.000    0.000
    20.000    0.000    0.000    20.000    0.000    0.000
    25.000    0.000    0.000    25.000    0.000    0.000
    /
ZCORN
    0.000    0.000    0.000    0.000
    0.000    0.000    0.000    0.000
    0.000    0.000    0.000    0.000
    0.000    0.000    0.000    0.000
    0.000    0.000    0.000    0.000
    0.000    0.000    0.000    0.000
    0.000    0.000    0.000    0.000
    0.000    0.000    0.000    0.000
    0.000    0.000    0.000    0.000
    4.000    4.000    4.000    4.000
    4.000    4.000    4.000    4.000
    4.000    4.000    4.000    4.000
    4.000    4.000    4.000    4.000
    4.000    4.000    4.000    4.000
    4.000    4.000    4.000    4.000
    0.000    0.000    0.000    0.000
    0.000    0.000    0.000    0.000
    4.000    4.000    4.000    4.000
    4.000    4.000    4.000    4.000
    4.000    4.000    4.000    4.000
    4.000    4.000    4.000    4.000
    4.000    4.000    4.000    4.000
    4.000    4.000    4.000    4.000
    0.000    0.000    0.000    0.000
    0.000    0.000    0.000    0.000
    4.000    4.000    4.000    4.000
    4.000    4.000    4.000    4.000
    4.000    4.000    4.000    4.000
    4.000    4.000    4.000    4.000
    4.000    4.000    4.000    4.000
    4.000    4.000    4.000    4.000
    0.000    0.000    0.000    0.000
    0.000    0.000    0.000    0.000
    4.000    4.000    4.000    4.000
    4.000    4.000    4.000    4.000
    4.000    4.000    4.000    4.000
    4.000    4.000    4.000    4.000
    4.000    4.000    4.000    4.000
    4.000    4.000    4.000    4.000
    0.000    0.000    0.000    0.000
    0.000    0.000    0.000    0.000
    4.000    4.000    4.000    4.000
    0.000    0.000    0.000    0.000
    0.000    0.000    0.000    0.000
    0.000    0.000    0.000    0.000
    0.000    0.000    0.000    0.000
    0.000    0.000    0.000    0.000
    0.000    0.000    0.000    0.000
    0.000    0.000    0.000    0.000
    0.000    0.000    0.000    0.000
    0.000    0.000    0.000    0.000
    6.000    6.000    6.000    6.000
    6.000    6.000    6.000    6.000
    6.000    6.000    6.000    6.000
    6.000    6.000    6.000    6.000
    6.000    6.000    6.000    6.000
    6.000    6.000    6.000    6.000
    0.000    0.000    0.000    0.000
    0.000    0.000    0.000    0.000
    6.000    6.000    6.000    6.000
    6.000    6.000    6.000    6.000
    6.000    6.000    6.000    6.000
    6.000    6.000    6.000    6.000
    6.000    6.000    6.000    6.000
    6.000    6.000    6.000    6.000
    0.000    0.000    0.000    0.000
    0.000    0.000    0.000    0.000
    6.000    6.000    6.000    6.000
    6.000    6.000    6.000    6.000
    6.000    6.000    6.000    6.000
    6.000    6.000    6.000    6.000
    6.000    6.000    6.000    6.000
    6.000    6.000    6.000    6.000
    0.000    0.000    0.000    0.000
    0.000    0.000    0.000    0.000
    6.000    6.000    6.000    6.000
    6.000    6.000    6.000    6.000
    6.000    6.000    6.000    6.000
    6.000    6.000    6.000    6.000
    6.000    6.000    6.000    6.000
    6.000    6.000    6.000    6.000
    0.000    0.000    0.000    0.000
    0.000    0.000    0.000    0.000
    6.000    6.000    6.000    6.000
    /
ACTNUM
 1 1 1 1 1 1
 1 1 1 1 1 1
 1 1 1 1 1 1
 1 1 1 1 1 1
 1 1 1 1 1 1
 1 1 1 1 1 1
 1 1 1 1 1 1
/
