SPECGRID
18 25 1  1 F /

COORD
    -10.000    100.000    0.000    -10.000    100.000    0.000
    -5.000    100.000    0.000    -5.000    100.000    0.000
    0.000    100.000    0.000    0.000    100.000    0.000
    5.000    100.000    0.000    5.000    100.000    0.000
    10.000    100.000    0.000    10.000    100.000    0.000
    15.000    100.000    0.000    15.000    100.000    0.000
    20.000    100.000    0.000    20.000    100.000    0.000
    25.000    100.000    0.000    25.000    100.000    0.000
    30.000    100.000    0.000    30.000    100.000    0.000
    35.000    100.000    0.000    35.000    100.000    0.000
    40.000    100.000    0.000    40.000    100.000    0.000
    45.000    100.000    0.000    45.000    100.000    0.000
    50.000    100.000    0.000    50.000    100.000    0.000
    55.000    100.000    0.000    55.000    100.000    0.000
    60.000    100.000    0.000    60.000    100.000    0.000
    65.000    100.000    0.000    65.000    100.000    0.000
    70.000    100.000    0.000    70.000    100.000    0.000
    75.000    100.000    0.000    75.000    100.000    0.000
    80.000    100.000    0.000    80.000    100.000    0.000
    -10.000    95.000    0.000    -10.000    95.000    0.000
    -5.000    95.000    0.000    -5.000    95.000    0.000
    0.000    95.000    0.000    0.000    95.000    0.000
    5.000    95.000    0.000    5.000    95.000    0.000
    10.000    95.000    0.000    10.000    95.000    0.000
    15.000    95.000    0.000    15.000    95.000    0.000
    20.000    95.000    0.000    20.000    95.000    0.000
    25.000    95.000    0.000    25.000    95.000    0.000
    30.000    95.000    5.857    30.000    95.000    7.418
    35.000    95.000    5.611    35.000    95.000    7.255
    40.000    95.000    5.084    40.000    95.000    6.864
    45.000    95.000    4.000    45.000    95.000    6.000
    50.000    95.000    3.167    50.000    95.000    6.169
    55.000    95.000    2.000    55.000    95.000    6.000
    60.000    95.000    2.026    60.000    95.000    6.379
    65.000    95.000    2.190    65.000    95.000    6.802
    70.000    95.000    2.412    70.000    95.000    7.215
    75.000    95.000    2.636    75.000    95.000    7.574
    80.000    95.000    2.844    80.000    95.000    7.864
    -10.000    90.000    3.032    -10.000    90.000    8.092
    -5.000    90.000    3.203    -5.000    90.000    8.267
    0.000    90.000    3.360    0.000    90.000    8.399
    5.000    90.000    3.500    5.000    90.000    8.488
    10.000    90.000    3.616    10.000    90.000    8.521
    15.000    90.000    3.693    15.000    90.000    8.477
    20.000    90.000    3.729    20.000    90.000    8.359
    25.000    90.000    3.738    25.000    90.000    8.194
    30.000    90.000    3.731    30.000    90.000    8.008
    35.000    90.000    3.714    35.000    90.000    7.817
    40.000    90.000    3.688    40.000    90.000    7.628
    45.000    90.000    3.655    45.000    90.000    7.445
    50.000    90.000    3.616    50.000    90.000    7.270
    55.000    90.000    0.000    55.000    90.000    0.000
    60.000    90.000    0.000    60.000    90.000    0.000
    65.000    90.000    6.408    65.000    90.000    7.896
    70.000    90.000    6.421    70.000    90.000    7.984
    75.000    90.000    6.337    75.000    90.000    8.054
    80.000    90.000    5.770    80.000    90.000    7.897
    -10.000    85.000    4.244    -10.000    85.000    7.247
    -5.000    85.000    2.770    -5.000    85.000    6.690
    0.000    85.000    2.340    0.000    85.000    6.767
    5.000    85.000    2.444    5.000    85.000    7.162
    10.000    85.000    2.652    10.000    85.000    7.582
    15.000    85.000    2.859    15.000    85.000    7.929
    20.000    85.000    3.042    20.000    85.000    8.189
    25.000    85.000    3.205    25.000    85.000    8.380
    30.000    85.000    3.356    30.000    85.000    8.522
    35.000    85.000    3.500    35.000    85.000    8.632
    40.000    85.000    3.640    40.000    85.000    8.714
    45.000    85.000    3.763    45.000    85.000    8.753
    50.000    85.000    3.833    50.000    85.000    8.686
    55.000    85.000    3.843    55.000    85.000    8.506
    60.000    85.000    3.829    60.000    85.000    8.285
    65.000    85.000    3.807    65.000    85.000    8.059
    70.000    85.000    3.779    70.000    85.000    7.838
    75.000    85.000    3.745    75.000    85.000    7.625
    80.000    85.000    3.705    80.000    85.000    7.424
    -10.000    80.000    3.658    -10.000    80.000    7.236
    -5.000    80.000    0.000    -5.000    80.000    0.000
    0.000    80.000    0.000    0.000    80.000    0.000
    5.000    80.000    6.823    5.000    80.000    8.283
    10.000    80.000    7.038    10.000    80.000    8.576
    15.000    80.000    7.390    15.000    80.000    9.086
    20.000    80.000    8.000    20.000    80.000    10.000
    25.000    80.000    5.273    25.000    80.000    8.207
    30.000    80.000    3.000    30.000    80.000    7.000
    35.000    80.000    2.798    35.000    80.000    7.178
    40.000    80.000    2.873    40.000    80.000    7.614
    45.000    80.000    3.031    45.000    80.000    8.045
    50.000    80.000    3.176    50.000    80.000    8.352
    55.000    80.000    3.297    55.000    80.000    8.546
    60.000    80.000    3.407    60.000    80.000    8.669
    65.000    80.000    3.516    65.000    80.000    8.755
    70.000    80.000    3.633    70.000    80.000    8.824
    75.000    80.000    3.760    75.000    80.000    8.886
    80.000    80.000    3.897    80.000    80.000    8.945
    -10.000    75.000    3.966    -10.000    75.000    8.867
    -5.000    75.000    3.931    -5.000    75.000    8.591
    0.000    75.000    3.898    0.000    75.000    8.321
    5.000    75.000    3.867    5.000    75.000    8.063
    10.000    75.000    3.833    10.000    75.000    7.818
    15.000    75.000    3.793    15.000    75.000    7.588
    20.000    75.000    3.747    20.000    75.000    7.374
    25.000    75.000    3.693    25.000    75.000    7.175
    30.000    75.000    0.000    30.000    75.000    0.000
    35.000    75.000    0.000    35.000    75.000    0.000
    40.000    75.000    6.980    40.000    75.000    8.449
    45.000    75.000    7.163    45.000    75.000    8.715
    50.000    75.000    7.314    50.000    75.000    9.033
    55.000    75.000    6.967    55.000    75.000    9.035
    60.000    75.000    5.488    60.000    75.000    8.188
    65.000    75.000    3.995    65.000    75.000    7.437
    70.000    75.000    3.431    70.000    75.000    7.530
    75.000    75.000    3.433    75.000    75.000    8.124
    80.000    75.000    3.517    80.000    75.000    8.601
    -10.000    70.000    3.557    -10.000    70.000    8.818
    -5.000    70.000    3.579    -5.000    70.000    8.899
    0.000    70.000    3.612    0.000    70.000    8.927
    5.000    70.000    3.664    5.000    70.000    8.938
    10.000    70.000    3.737    10.000    70.000    8.945
    15.000    70.000    3.828    15.000    70.000    8.950
    20.000    70.000    3.926    20.000    70.000    8.938
    25.000    70.000    3.976    25.000    70.000    8.815
    30.000    70.000    3.959    30.000    70.000    8.557
    35.000    70.000    3.931    35.000    70.000    8.278
    40.000    70.000    3.903    40.000    70.000    8.008
    45.000    70.000    3.871    45.000    70.000    7.752
    50.000    70.000    3.831    50.000    70.000    7.513
    55.000    70.000    3.781    55.000    70.000    7.290
    60.000    70.000    3.721    60.000    70.000    7.085
    65.000    70.000    0.000    65.000    70.000    0.000
    70.000    70.000    0.000    70.000    70.000    0.000
    75.000    70.000    6.908    75.000    70.000    8.414
    80.000    70.000    6.937    80.000    70.000    8.524
    -10.000    65.000    6.800    -10.000    65.000    8.533
    -5.000    65.000    6.266    -5.000    65.000    8.253
    0.000    65.000    5.263    0.000    65.000    7.626
    5.000    65.000    4.245    5.000    65.000    7.101
    10.000    65.000    3.836    10.000    65.000    7.475
    15.000    65.000    4.042    15.000    65.000    8.723
    20.000    65.000    4.055    20.000    65.000    9.233
    25.000    65.000    3.936    25.000    65.000    9.251
    30.000    65.000    3.840    30.000    65.000    9.183
    35.000    65.000    3.789    35.000    65.000    9.111
    40.000    65.000    3.777    40.000    65.000    9.044
    45.000    65.000    3.798    45.000    65.000    8.983
    50.000    65.000    3.843    50.000    65.000    8.915
    55.000    65.000    3.895    55.000    65.000    8.820
    60.000    65.000    3.929    60.000    65.000    8.658
    65.000    65.000    3.936    65.000    65.000    8.426
    70.000    65.000    3.929    70.000    65.000    8.163
    75.000    65.000    3.915    75.000    65.000    7.896
    80.000    65.000    3.893    80.000    65.000    7.639
    -10.000    60.000    3.857    -10.000    60.000    7.397
    -5.000    60.000    3.806    -5.000    60.000    7.172
    0.000    60.000    3.741    0.000    60.000    6.966
    5.000    60.000    0.000    5.000    60.000    0.000
    10.000    60.000    0.000    10.000    60.000    0.000
    15.000    60.000    6.718    15.000    60.000    8.286
    20.000    60.000    6.617    20.000    60.000    8.254
    25.000    60.000    6.337    25.000    60.000    8.081
    30.000    60.000    5.786    30.000    60.000    7.677
    35.000    60.000    4.968    35.000    60.000    7.028
    40.000    60.000    4.068    40.000    60.000    6.290
    45.000    60.000    3.528    45.000    60.000    6.167
    50.000    60.000    4.807    50.000    60.000    9.819
    55.000    60.000    4.468    55.000    60.000    9.667
    60.000    60.000    4.199    60.000    60.000    9.468
    65.000    60.000    4.019    65.000    60.000    9.313
    70.000    60.000    3.903    70.000    60.000    9.181
    75.000    60.000    3.838    75.000    60.000    9.061
    80.000    60.000    3.813    80.000    60.000    8.943
    -10.000    55.000    3.817    -10.000    55.000    8.817
    -5.000    55.000    3.837    -5.000    55.000    8.667
    0.000    55.000    3.862    0.000    55.000    8.477
    5.000    55.000    3.883    5.000    55.000    8.247
    10.000    55.000    3.899    10.000    55.000    7.994
    15.000    55.000    3.907    15.000    55.000    7.735
    20.000    55.000    3.901    20.000    55.000    7.482
    25.000    55.000    3.873    25.000    55.000    7.243
    30.000    55.000    3.822    30.000    55.000    7.021
    35.000    55.000    3.750    35.000    55.000    6.817
    40.000    55.000    0.000    40.000    55.000    0.000
    45.000    55.000    0.000    45.000    55.000    0.000
    50.000    55.000    6.503    50.000    55.000    8.159
    55.000    55.000    6.328    55.000    55.000    8.047
    60.000    55.000    6.004    60.000    55.000    7.806
    65.000    55.000    5.495    65.000    55.000    7.390
    70.000    55.000    4.817    70.000    55.000    6.800
    75.000    55.000    4.069    75.000    55.000    6.123
    80.000    55.000    3.589    80.000    55.000    5.967
    -10.000    50.000    4.309    -10.000    50.000    8.341
    -5.000    50.000    4.438    -5.000    50.000    9.253
    0.000    50.000    4.262    0.000    50.000    9.327
    5.000    50.000    4.082    5.000    50.000    9.248
    10.000    50.000    3.940    10.000    50.000    9.127
    15.000    50.000    3.839    15.000    50.000    8.989
    20.000    50.000    3.778    20.000    50.000    8.838
    25.000    50.000    3.750    25.000    50.000    8.671
    30.000    50.000    3.749    30.000    50.000    8.484
    35.000    50.000    3.768    35.000    50.000    8.271
    40.000    50.000    3.802    40.000    50.000    8.036
    45.000    50.000    3.844    45.000    50.000    7.786
    50.000    50.000    3.882    50.000    50.000    7.534
    55.000    50.000    3.899    55.000    50.000    7.288
    60.000    50.000    3.883    60.000    50.000    7.054
    65.000    50.000    3.830    65.000    50.000    6.837
    70.000    50.000    3.749    70.000    50.000    6.639
    75.000    50.000    0.000    75.000    50.000    0.000
    80.000    50.000    0.000    80.000    50.000    0.000
    -10.000    45.000    6.308    -10.000    45.000    8.081
    -5.000    45.000    6.106    -5.000    45.000    7.949
    0.000    45.000    5.794    0.000    45.000    7.723
    5.000    45.000    5.364    5.000    45.000    7.394
    10.000    45.000    4.849    10.000    45.000    7.006
    15.000    45.000    4.356    15.000    45.000    6.726
    20.000    45.000    4.111    20.000    45.000    6.976
    25.000    45.000    4.221    25.000    45.000    7.941
    30.000    45.000    4.296    30.000    45.000    8.727
    35.000    45.000    4.206    35.000    45.000    9.025
    40.000    45.000    4.055    40.000    45.000    9.063
    45.000    45.000    3.905    45.000    45.000    8.984
    50.000    45.000    3.782    50.000    45.000    8.849
    55.000    45.000    3.693    55.000    45.000    8.681
    60.000    45.000    3.639    60.000    45.000    8.488
    65.000    45.000    3.621    65.000    45.000    8.274
    70.000    45.000    3.636    70.000    45.000    8.042
    75.000    45.000    3.686    75.000    45.000    7.798
    80.000    45.000    3.760    80.000    45.000    7.548
    -10.000    40.000    3.840    -10.000    40.000    7.300
    -5.000    40.000    3.891    -5.000    40.000    7.061
    0.000    40.000    3.889    0.000    40.000    6.835
    5.000    40.000    3.830    5.000    40.000    6.624
    10.000    40.000    3.733    10.000    40.000    6.434
    15.000    40.000    0.000    15.000    40.000    0.000
    20.000    40.000    0.000    20.000    40.000    0.000
    25.000    40.000    6.146    25.000    40.000    8.061
    30.000    40.000    5.949    30.000    40.000    7.951
    35.000    40.000    5.675    35.000    40.000    7.786
    40.000    40.000    5.333    40.000    40.000    7.581
    45.000    40.000    4.955    45.000    40.000    7.392
    50.000    40.000    4.615    50.000    40.000    7.337
    55.000    40.000    4.400    55.000    40.000    7.567
    60.000    40.000    4.319    60.000    40.000    8.061
    65.000    40.000    4.258    65.000    40.000    8.534
    70.000    40.000    4.141    70.000    40.000    8.797
    75.000    40.000    3.984    75.000    40.000    8.864
    80.000    40.000    3.822    80.000    40.000    8.806
    -10.000    35.000    3.677    -10.000    35.000    8.672
    -5.000    35.000    3.563    -5.000    35.000    8.490
    0.000    35.000    3.485    0.000    35.000    8.277
    5.000    35.000    3.447    5.000    35.000    8.041
    10.000    35.000    3.455    10.000    35.000    7.791
    15.000    35.000    3.518    15.000    35.000    7.535
    20.000    35.000    3.635    20.000    35.000    7.282
    25.000    35.000    3.777    25.000    35.000    7.038
    30.000    35.000    3.884    30.000    35.000    6.806
    35.000    35.000    3.896    35.000    35.000    6.587
    40.000    35.000    3.818    40.000    35.000    6.384
    45.000    35.000    3.692    45.000    35.000    6.203
    50.000    35.000    0.000    50.000    35.000    0.000
    55.000    35.000    0.000    55.000    35.000    0.000
    60.000    35.000    6.015    60.000    35.000    8.087
    65.000    35.000    5.836    65.000    35.000    8.018
    70.000    35.000    5.609    70.000    35.000    7.928
    75.000    35.000    5.343    75.000    35.000    7.838
    80.000    35.000    5.065    80.000    35.000    7.789
    -10.000    30.000    4.808    -10.000    30.000    7.836
    -5.000    30.000    4.599    -5.000    30.000    8.014
    0.000    30.000    4.431    0.000    30.000    8.282
    5.000    30.000    4.270    5.000    30.000    8.532
    10.000    30.000    4.090    10.000    30.000    8.679
    15.000    30.000    3.896    15.000    30.000    8.705
    20.000    30.000    3.705    20.000    30.000    8.631
    25.000    30.000    3.535    25.000    30.000    8.483
    30.000    30.000    3.394    30.000    30.000    8.283
    35.000    30.000    3.289    35.000    30.000    8.047
    40.000    30.000    3.225    40.000    30.000    7.789
    45.000    30.000    3.213    45.000    30.000    7.518
    50.000    30.000    3.277    50.000    30.000    7.247
    55.000    30.000    3.438    55.000    30.000    6.988
    60.000    30.000    3.678    60.000    30.000    6.749
    65.000    30.000    3.884    65.000    30.000    6.527
    70.000    30.000    3.904    70.000    30.000    6.315
    75.000    30.000    3.774    75.000    30.000    6.118
    80.000    30.000    3.607    80.000    30.000    5.948
    -10.000    25.000    0.000    -10.000    25.000    0.000
    -5.000    25.000    0.000    -5.000    25.000    0.000
    0.000    25.000    5.904    0.000    25.000    8.138
    5.000    25.000    5.748    5.000    25.000    8.113
    10.000    25.000    5.563    10.000    25.000    8.090
    15.000    25.000    5.359    15.000    25.000    8.090
    20.000    25.000    5.152    20.000    25.000    8.137
    25.000    25.000    4.955    25.000    25.000    8.248
    30.000    25.000    4.756    30.000    25.000    8.395
    35.000    25.000    4.532    35.000    25.000    8.520
    40.000    25.000    4.289    40.000    25.000    8.602
    45.000    25.000    4.041    45.000    25.000    8.627
    50.000    25.000    3.796    50.000    25.000    8.584
    55.000    25.000    3.566    55.000    25.000    8.471
    60.000    25.000    3.365    60.000    25.000    8.295
    65.000    25.000    3.198    65.000    25.000    8.070
    70.000    25.000    3.063    70.000    25.000    7.808
    75.000    25.000    2.963    75.000    25.000    7.524
    80.000    25.000    2.908    80.000    25.000    7.229
    -10.000    20.000    2.934    -10.000    20.000    6.936
    -5.000    20.000    3.110    -5.000    20.000    6.664
    0.000    20.000    3.481    0.000    20.000    6.429
    5.000    20.000    3.904    5.000    20.000    6.227
    10.000    20.000    3.874    10.000    20.000    6.015
    15.000    20.000    3.645    15.000    20.000    5.822
    20.000    20.000    3.443    20.000    20.000    5.669
    25.000    20.000    0.000    25.000    20.000    0.000
    30.000    20.000    0.000    30.000    20.000    0.000
    35.000    20.000    5.803    35.000    20.000    8.192
    40.000    20.000    5.667    40.000    20.000    8.204
    45.000    20.000    5.515    45.000    20.000    8.232
    50.000    20.000    5.355    50.000    20.000    8.293
    55.000    20.000    5.201    55.000    20.000    8.406
    60.000    20.000    5.061    60.000    20.000    8.579
    65.000    20.000    4.893    65.000    20.000    8.740
    70.000    20.000    4.608    70.000    20.000    8.733
    75.000    20.000    4.290    75.000    20.000    8.668
    80.000    20.000    3.979    80.000    20.000    8.588
    -10.000    15.000    3.681    -10.000    15.000    8.478
    -5.000    15.000    3.407    -5.000    15.000    8.323
    0.000    15.000    3.177    0.000    15.000    8.114
    5.000    15.000    2.990    5.000    15.000    7.857
    10.000    15.000    2.828    10.000    15.000    7.566
    15.000    15.000    2.685    15.000    15.000    7.254
    20.000    15.000    2.566    20.000    15.000    6.930
    25.000    15.000    2.493    25.000    15.000    6.607
    30.000    15.000    2.578    30.000    15.000    6.307
    35.000    15.000    3.021    35.000    15.000    6.062
    40.000    15.000    3.572    40.000    15.000    5.867
    45.000    15.000    3.549    45.000    15.000    5.662
    50.000    15.000    3.338    50.000    15.000    5.489
    55.000    15.000    3.167    55.000    15.000    5.366
    60.000    15.000    0.000    60.000    15.000    0.000
    65.000    15.000    0.000    65.000    15.000    0.000
    70.000    15.000    5.703    70.000    15.000    8.233
    75.000    15.000    5.582    75.000    15.000    8.270
    80.000    15.000    5.450    80.000    15.000    8.327
    -10.000    10.000    5.316    -10.000    10.000    8.418
    -5.000    10.000    5.189    -5.000    10.000    8.556
    0.000    10.000    5.078    0.000    10.000    8.751
    5.000    10.000    4.962    5.000    10.000    8.964
    10.000    10.000    4.607    10.000    10.000    8.820
    15.000    10.000    4.245    15.000    10.000    8.665
    20.000    10.000    3.897    20.000    10.000    8.518
    25.000    10.000    3.557    25.000    10.000    8.361
    30.000    10.000    3.233    30.000    10.000    8.178
    35.000    10.000    2.983    35.000    10.000    7.937
    40.000    10.000    2.792    40.000    10.000    7.645
    45.000    10.000    2.610    45.000    10.000    7.326
    50.000    10.000    2.431    50.000    10.000    6.987
    55.000    10.000    2.256    55.000    10.000    6.635
    60.000    10.000    2.086    60.000    10.000    6.278
    65.000    10.000    1.973    65.000    10.000    5.934
    70.000    10.000    2.391    70.000    10.000    5.661
    75.000    10.000    2.758    75.000    10.000    5.433
    80.000    10.000    2.886    80.000    10.000    5.252
    -10.000    5.000    2.854    -10.000    5.000    5.126
    -5.000    5.000    2.790    -5.000    5.000    5.049
    0.000    5.000    0.000    0.000    5.000    0.000
    5.000    5.000    0.000    5.000    5.000    0.000
    10.000    5.000    5.600    10.000    5.000    8.252
    15.000    5.000    5.486    15.000    5.000    8.301
    20.000    5.000    5.363    20.000    5.000    8.367
    25.000    5.000    5.236    25.000    5.000    8.458
    30.000    5.000    5.107    30.000    5.000    8.576
    35.000    5.000    4.968    35.000    5.000    8.706
    40.000    5.000    4.779    40.000    5.000    8.779
    45.000    5.000    4.490    45.000    5.000    8.709
    50.000    5.000    4.150    50.000    5.000    8.561
    55.000    5.000    3.799    55.000    5.000    8.393
    60.000    5.000    3.448    60.000    5.000    8.209
    65.000    5.000    3.104    65.000    5.000    8.005
    70.000    5.000    2.841    70.000    5.000    7.741
    75.000    5.000    2.636    75.000    5.000    7.427
    80.000    5.000    2.433    80.000    5.000    7.090
    -10.000    0.000    2.230    -10.000    0.000    6.732
    -5.000    0.000    2.030    -5.000    0.000    6.359
    0.000    0.000    1.855    0.000    0.000    5.977
    5.000    0.000    1.785    5.000    0.000    5.603
    10.000    0.000    1.905    10.000    0.000    5.266
    15.000    0.000    2.084    15.000    0.000    4.994
    20.000    0.000    2.225    20.000    0.000    4.826
    25.000    0.000    2.318    25.000    0.000    4.756
    30.000    0.000    2.372    30.000    0.000    4.739
    35.000    0.000    0.000    35.000    0.000    0.000
    40.000    0.000    0.000    40.000    0.000    0.000
    45.000    0.000    5.490    45.000    0.000    8.246
    50.000    0.000    5.379    50.000    0.000    8.294
    55.000    0.000    5.257    55.000    0.000    8.355
    60.000    0.000    5.126    60.000    0.000    8.428
    65.000    0.000    4.983    65.000    0.000    8.508
    70.000    0.000    4.817    70.000    0.000    8.574
    75.000    0.000    4.608    75.000    0.000    8.589
    80.000    0.000    4.340    80.000    0.000    8.523
    -10.000    -5.000    4.029    -10.000    -5.000    8.392
    -5.000    -5.000    3.699    -5.000    -5.000    8.222
    0.000    -5.000    3.365    0.000    -5.000    8.023
    5.000    -5.000    3.047    5.000    -5.000    7.793
    10.000    -5.000    2.770    10.000    -5.000    7.521
    15.000    -5.000    2.531    15.000    -5.000    7.207
    20.000    -5.000    2.306    20.000    -5.000    6.864
    25.000    -5.000    2.087    25.000    -5.000    6.498
    30.000    -5.000    1.877    30.000    -5.000    6.112
    35.000    -5.000    1.695    35.000    -5.000    5.712
    40.000    -5.000    1.572    40.000    -5.000    5.304
    45.000    -5.000    1.519    45.000    -5.000    4.903
    50.000    -5.000    1.518    50.000    -5.000    4.554
    55.000    -5.000    1.638    55.000    -5.000    4.403
    60.000    -5.000    1.830    60.000    -5.000    4.418
    65.000    -5.000    1.982    65.000    -5.000    4.467
    70.000    -5.000    0.000    70.000    -5.000    0.000
    75.000    -5.000    0.000    75.000    -5.000    0.000
    80.000    -5.000    5.377    80.000    -5.000    8.215
    -10.000    -10.000    5.263    -10.000    -10.000    8.257
    -5.000    -10.000    5.138    -5.000    -10.000    8.303
    0.000    -10.000    5.000    0.000    -10.000    8.353
    5.000    -10.000    4.845    5.000    -10.000    8.396
    10.000    -10.000    4.665    10.000    -10.000    8.418
    15.000    -10.000    4.450    15.000    -10.000    8.399
    20.000    -10.000    4.196    20.000    -10.000    8.324
    25.000    -10.000    3.908    25.000    -10.000    8.196
    30.000    -10.000    3.602    30.000    -10.000    8.027
    35.000    -10.000    3.292    35.000    -10.000    7.822
    40.000    -10.000    2.992    40.000    -10.000    7.583
    45.000    -10.000    2.714    45.000    -10.000    7.308
    50.000    -10.000    2.460    50.000    -10.000    6.998
    55.000    -10.000    2.221    55.000    -10.000    6.658
    60.000    -10.000    1.993    60.000    -10.000    6.293
    65.000    -10.000    1.776    65.000    -10.000    5.907
    70.000    -10.000    1.580    70.000    -10.000    5.502
    75.000    -10.000    1.409    75.000    -10.000    5.080
    80.000    -10.000    1.255    80.000    -10.000    4.643
    -10.000    -15.000    1.083    -10.000    -15.000    4.188
    -5.000    -15.000    1.200    -5.000    -15.000    4.074
    0.000    -15.000    1.473    0.000    -15.000    4.181
    5.000    -15.000    1.678    5.000    -15.000    4.270
    10.000    -15.000    0.000    10.000    -15.000    0.000
    15.000    -15.000    0.000    15.000    -15.000    0.000
    20.000    -15.000    5.261    20.000    -15.000    8.164
    25.000    -15.000    5.144    25.000    -15.000    8.195
    30.000    -15.000    5.015    30.000    -15.000    8.225
    35.000    -15.000    4.870    35.000    -15.000    8.251
    40.000    -15.000    4.708    40.000    -15.000    8.265
    45.000    -15.000    4.522    45.000    -15.000    8.256
    50.000    -15.000    4.308    50.000    -15.000    8.213
    55.000    -15.000    4.064    55.000    -15.000    8.127
    60.000    -15.000    3.796    60.000    -15.000    7.997
    65.000    -15.000    3.512    65.000    -15.000    7.828
    70.000    -15.000    3.223    70.000    -15.000    7.622
    75.000    -15.000    2.939    75.000    -15.000    7.383
    80.000    -15.000    2.667    80.000    -15.000    7.111
    -10.000    -20.000    2.411    -10.000    -20.000    6.808
    -5.000    -20.000    2.169    -5.000    -20.000    6.478
    0.000    -20.000    1.938    0.000    -20.000    6.123
    5.000    -20.000    1.720    5.000    -20.000    5.749
    10.000    -20.000    1.518    10.000    -20.000    5.359
    15.000    -20.000    1.334    15.000    -20.000    4.958
    20.000    -20.000    1.170    20.000    -20.000    4.560
    25.000    -20.000    1.056    25.000    -20.000    4.216
    30.000    -20.000    1.114    30.000    -20.000    4.074
    35.000    -20.000    1.301    35.000    -20.000    4.104
    40.000    -20.000    1.486    40.000    -20.000    4.172
    45.000    -20.000    0.000    45.000    -20.000    0.000
    50.000    -20.000    0.000    50.000    -20.000    0.000
    55.000    -20.000    5.145    55.000    -20.000    8.098
    60.000    -20.000    5.025    60.000    -20.000    8.116
    65.000    -20.000    4.892    65.000    -20.000    8.130
    70.000    -20.000    4.743    70.000    -20.000    8.135
    75.000    -20.000    4.577    75.000    -20.000    8.126
    80.000    -20.000    4.390    80.000    -20.000    8.095
    -10.000    -25.000    4.180    -10.000    -25.000    8.033
    -5.000    -25.000    3.947    -5.000    -25.000    7.937
    0.000    -25.000    3.695    0.000    -25.000    7.804
    5.000    -25.000    3.430    5.000    -25.000    7.635
    10.000    -25.000    3.159    10.000    -25.000    7.432
    15.000    -25.000    2.891    15.000    -25.000    7.198
    20.000    -25.000    2.630    20.000    -25.000    6.934
    25.000    -25.000    2.380    25.000    -25.000    6.642
    30.000    -25.000    2.141    30.000    -25.000    6.326
    35.000    -25.000    1.915    35.000    -25.000    5.989
    40.000    -25.000    1.703    40.000    -25.000    5.637
    45.000    -25.000    1.507    45.000    -25.000    5.277
    50.000    -25.000    1.335    50.000    -25.000    4.918
    55.000    -25.000    1.196    55.000    -25.000    4.584
    60.000    -25.000    1.121    60.000    -25.000    4.317
    65.000    -25.000    1.146    65.000    -25.000    4.168
    70.000    -25.000    1.253    70.000    -25.000    4.131
    75.000    -25.000    1.390    75.000    -25.000    4.153
    80.000    -25.000    0.000    80.000    -25.000    0.000
    /
ZCORN
    0.000    0.000    0.000    0.000
    0.000    0.000    0.000    0.000
    0.000    0.000    0.000    0.000
    0.000    0.000    0.000    0.000
    0.000    0.000    0.000    0.000
    0.000    0.000    0.000    0.000
    0.000    0.000    0.000    0.000
    0.000    0.000    0.000    0.000
    0.000    0.000    0.000    0.000
    0.000    0.000    0.000    0.000
    0.000    0.000    0.000    0.000
    0.000    0.000    0.000    0.000
    0.000    0.000    0.000    0.000
    0.000    0.000    0.000    0.000
    0.000    0.000    0.000    0.000
    0.000    0.000    0.000    0.000
    0.000    0.000    0.000    0.000
    0.000    0.000    0.000    0.000
    0.000    0.000    0.000    0.000
    0.000    0.000    0.000    0.000