SPECGRID
4 4 1  1 F /

COORD
    5.000    30.000    50.000    5.000    30.000    10.000
    10.000    30.000    50.000    10.000    30.000    10.000
    15.000    30.000    50.000    15.000    30.000    10.000
    20.000    30.000    50.000    20.000    30.000    10.000
    25.000    30.000    50.000    25.000    30.000    10.000
    5.000    25.000    55.000    5.000    25.000    15.000
    10.000    25.000    55.000    10.000    25.000    15.000
    15.000    25.000    55.000    15.000    25.000    15.000
    20.000    25.000    55.000    20.000    25.000    15.000
    25.000    25.000    55.000    25.000    25.000    15.000
    5.000    20.000    60.000    5.000    20.000    20.000
    10.000    20.000    60.000    10.000    20.000    20.000
    15.000    20.000    60.000    15.000    20.000    20.000
    20.000    20.000    60.000    20.000    20.000    20.000
    25.000    20.000    60.000    25.000    20.000    20.000
    5.000    15.000    65.000    5.000    15.000    25.000
    10.000    15.000    65.000    10.000    15.000    25.000
    15.000    15.000    65.000    15.000    15.000    25.000
    20.000    15.000    65.000    20.000    15.000    25.000
    25.000    15.000    65.000    25.000    15.000    25.000
    5.000    10.000    70.000    5.000    10.000    30.000
    10.000    10.000    70.000    10.000    10.000    30.000
    15.000    10.000    70.000    15.000    10.000    30.000
    20.000    10.000    70.000    20.000    10.000    30.000
    25.000    10.000    70.000    25.000    10.000    30.000
    /
ZCORN
    50.000    50.000    50.000    50.000
    50.000    50.000    50.000    50.000
    50.000    50.000    50.000    50.000
    50.000    50.000    50.000    50.000
    50.000    50.000    50.000    50.000
    55.000    55.000    55.000    55.000
    55.000    55.000    55.000    55.000
    55.000    55.000    55.000    55.000
    55.000    55.000    55.000    55.000
    55.000    55.000    55.000    55.000
    60.000    60.000    60.000    60.000
    60.000    60.000    60.000    60.000
    60.000    60.000    60.000    60.000
    60.000    60.000    60.000    60.000
    60.000    60.000    60.000    60.000
    65.000    65.000    65.000    65.000
    10.000    10.000    10.000    10.000
    10.000    10.000    10.000    10.000
    10.000    10.000    10.000    10.000
    10.000    10.000    10.000    10.000
    10.000    10.000    10.000    10.000
    15.000    15.000    15.000    15.000
    15.000    15.000    15.000    15.000
    15.000    15.000    15.000    15.000
    15.000    15.000    15.000    15.000
    15.000    15.000    15.000    15.000
    20.000    20.000    20.000    20.000
    20.000    20.000    20.000    20.000
    20.000    20.000    20.000    20.000
    20.000    20.000    20.000    20.000
    20.000    20.000    20.000    20.000
    25.000    25.000    25.000    25.000
    /
ACTNUM
 1 1 1 1
 1 1 1 1
 1 1 1 1
 1 1 1 1
/
